unknown system                          
            1
    17.000000    0.000000    0.000000
     0.000000   17.000000    0.000000
     0.000000    0.000000   20.000000
   Ni   C    H    N 
     1    40     8    16
Direct configuration=     1
   0.50000000  0.50000000  0.50000000
   0.17249523  0.28256045  0.50000000
   0.32912561  0.22783397  0.50000000
   0.23453658  0.33641056  0.50000000
   0.31416404  0.30898944  0.50000000
   0.26688312  0.17414393  0.50000000
   0.18752148  0.20160452  0.50000000
   0.21778892  0.41815553  0.50000000
   0.37662825  0.36387294  0.50000000
   0.28444822  0.09214553  0.50000000
   0.12226142  0.14949779  0.50000000
   0.67087439  0.77216603  0.50000000
   0.82750477  0.71743955  0.50000000
   0.73311688  0.82585607  0.50000000
   0.81247852  0.79839548  0.50000000
   0.76546342  0.66358944  0.50000000
   0.68583596  0.69101056  0.50000000
   0.71555178  0.90785447  0.50000000
   0.87773858  0.85050221  0.50000000
   0.78221108  0.58184447  0.50000000
   0.62337175  0.63612706  0.50000000
   0.71743955  0.17249523  0.50000000
   0.77216603  0.32912561  0.50000000
   0.66358944  0.23453658  0.50000000
   0.69101056  0.31416404  0.50000000
   0.82585607  0.26688312  0.50000000
   0.79839548  0.18752148  0.50000000
   0.58184447  0.21778892  0.50000000
   0.63612706  0.37662825  0.50000000
   0.90785447  0.28444822  0.50000000
   0.85050221  0.12226142  0.50000000
   0.22783397  0.67087439  0.50000000
   0.28256045  0.82750477  0.50000000
   0.17414393  0.73311688  0.50000000
   0.20160452  0.81247852  0.50000000
   0.33641056  0.76546342  0.50000000
   0.30898944  0.68583596  0.50000000
   0.09214553  0.71555178  0.50000000
   0.14949779  0.87773858  0.50000000
   0.41815553  0.78221108  0.50000000
   0.36387294  0.62337175  0.50000000
   0.38988730  0.20706329  0.50000000
   0.11157364  0.30299622  0.50000000
   0.88842636  0.69700378  0.50000000
   0.61011270  0.79293671  0.50000000
   0.79293671  0.38988730  0.50000000
   0.69700378  0.11157364  0.50000000
   0.30299622  0.88842636  0.50000000
   0.20706329  0.61011270  0.50000000
   0.20391337  0.48547619  0.50000000
   0.42565157  0.41225232  0.50000000
   0.30070417  0.02534985  0.50000000
   0.06594219  0.10999144  0.50000000
   0.69929583  0.97465015  0.50000000
   0.93405781  0.89000856  0.50000000
   0.79608663  0.51452381  0.50000000
   0.57434843  0.58774768  0.50000000
   0.51452381  0.20391337  0.50000000
   0.58774768  0.42565157  0.50000000
   0.97465015  0.30070417  0.50000000
   0.89000856  0.06594219  0.50000000
   0.02534985  0.69929583  0.50000000
   0.10999144  0.93405781  0.50000000
   0.48547619  0.79608663  0.50000000
   0.41225232  0.57434843  0.50000000
Direct configuration=     2
   0.50000000  0.50000000  0.50000000
   0.17248294  0.28256688  0.50000000
   0.32913203  0.22783221  0.50000000
   0.23452713  0.33641659  0.50000000
   0.31417078  0.30899604  0.50000000
   0.26688771  0.17414444  0.50000000
   0.18751456  0.20160675  0.50000000
   0.21778704  0.41818495  0.50000000
   0.37665136  0.36390808  0.50000000
   0.28444749  0.09211994  0.50000000
   0.12223815  0.14947726  0.50000000
   0.67086787  0.77216782  0.50000000
   0.82751719  0.71743307  0.50000000
   0.73311221  0.82585555  0.50000000
   0.81248546  0.79839321  0.50000000
   0.76547292  0.66358345  0.50000000
   0.68582921  0.69100406  0.50000000
   0.71555248  0.90788013  0.50000000
   0.87776190  0.85052278  0.50000000
   0.78221298  0.58181498  0.50000000
   0.62334859  0.63609190  0.50000000
   0.71743315  0.17248301  0.50000000
   0.77216777  0.32913198  0.50000000
   0.66358338  0.23452714  0.50000000
   0.69100390  0.31417082  0.50000000
   0.82585554  0.26688771  0.50000000
   0.79839325  0.18751454  0.50000000
   0.58181508  0.21778704  0.50000000
   0.63609195  0.37665133  0.50000000
   0.90788004  0.28444749  0.50000000
   0.85052272  0.12223816  0.50000000
   0.22783223  0.67086804  0.50000000
   0.28256685  0.82751698  0.50000000
   0.17414445  0.73311230  0.50000000
   0.20160675  0.81248545  0.50000000
   0.33641663  0.76547286  0.50000000
   0.30899611  0.68582919  0.50000000
   0.09211998  0.71555251  0.50000000
   0.14947728  0.87776183  0.50000000
   0.41818490  0.78221295  0.50000000
   0.36390805  0.62334867  0.50000000
   0.38987168  0.20707165  0.50000000
   0.11158303  0.30299074  0.50000000
   0.88841696  0.69700926  0.50000000
   0.61012834  0.79292834  0.50000000
   0.79292834  0.38987167  0.50000000
   0.69700926  0.11158303  0.50000000
   0.30299073  0.88841696  0.50000000
   0.20707166  0.61012833  0.50000000
   0.20392636  0.48543816  0.50000000
   0.42562449  0.41223183  0.50000000
   0.30068486  0.02539238  0.50000000
   0.06598183  0.11002282  0.50000000
   0.69931513  0.97460763  0.50000000
   0.93401822  0.88997721  0.50000000
   0.79607366  0.51456178  0.50000000
   0.57437546  0.58776812  0.50000000
   0.51456187  0.20392636  0.50000000
   0.58776828  0.42562435  0.50000000
   0.97460760  0.30068486  0.50000000
   0.88997714  0.06598186  0.50000000
   0.02539240  0.69931514  0.50000000
   0.11002286  0.93401813  0.50000000
   0.48543813  0.79607364  0.50000000
   0.41223172  0.57437565  0.50000000
Direct configuration=     3
   0.50000000  0.50000000  0.50000000
   0.17249107  0.28256263  0.50000000
   0.32912778  0.22783338  0.50000000
   0.23453339  0.33641260  0.50000000
   0.31416632  0.30899167  0.50000000
   0.26688467  0.17414410  0.50000000
   0.18751914  0.20160527  0.50000000
   0.21778828  0.41816547  0.50000000
   0.37663606  0.36388481  0.50000000
   0.28444798  0.09213688  0.50000000
   0.12225356  0.14949085  0.50000000
   0.67087219  0.77216664  0.50000000
   0.82750897  0.71743736  0.50000000
   0.73311530  0.82585590  0.50000000
   0.81248087  0.79839471  0.50000000
   0.76546663  0.66358742  0.50000000
   0.68583368  0.69100837  0.50000000
   0.71555202  0.90786314  0.50000000
   0.87774646  0.85050916  0.50000000
   0.78221172  0.58183450  0.50000000
   0.62336393  0.63611518  0.50000000
   0.71743738  0.17249110  0.50000000
   0.77216662  0.32912776  0.50000000
   0.66358739  0.23453339  0.50000000
   0.69100831  0.31416633  0.50000000
   0.82585589  0.26688467  0.50000000
   0.79839473  0.18751913  0.50000000
   0.58183454  0.21778829  0.50000000
   0.63611520  0.37663605  0.50000000
   0.90786311  0.28444798  0.50000000
   0.85050914  0.12225356  0.50000000
   0.22783338  0.67087225  0.50000000
   0.28256261  0.82750890  0.50000000
   0.17414410  0.73311533  0.50000000
   0.20160527  0.81248087  0.50000000
   0.33641261  0.76546661  0.50000000
   0.30899169  0.68583367  0.50000000
   0.09213690  0.71555203  0.50000000
   0.14949086  0.87774644  0.50000000
   0.41816546  0.78221171  0.50000000
   0.36388480  0.62336395  0.50000000
   0.38988202  0.20706612  0.50000000
   0.11157681  0.30299436  0.50000000
   0.88842318  0.69700564  0.50000000
   0.61011799  0.79293388  0.50000000
   0.79293388  0.38988202  0.50000000
   0.69700564  0.11157681  0.50000000
   0.30299436  0.88842319  0.50000000
   0.20706612  0.61011798  0.50000000
   0.20391776  0.48546334  0.50000000
   0.42564242  0.41224540  0.50000000
   0.30069765  0.02536422  0.50000000
   0.06595558  0.11000204  0.50000000
   0.69930235  0.97463579  0.50000000
   0.93404444  0.88999797  0.50000000
   0.79608225  0.51453664  0.50000000
   0.57435756  0.58775458  0.50000000
   0.51453667  0.20391776  0.50000000
   0.58775464  0.42564237  0.50000000
   0.97463578  0.30069765  0.50000000
   0.88999794  0.06595559  0.50000000
   0.02536422  0.69930235  0.50000000
   0.11000206  0.93404441  0.50000000
   0.48546333  0.79608224  0.50000000
   0.41224536  0.57435763  0.50000000
Direct configuration=     4
   0.50000000  0.50000000  0.50000000
   0.17248301  0.28256690  0.50000000
   0.32913068  0.22783443  0.50000000
   0.23452638  0.33641989  0.50000000
   0.31417273  0.30899977  0.50000000
   0.26688735  0.17414290  0.50000000
   0.18751213  0.20160577  0.50000000
   0.21779323  0.41815973  0.50000000
   0.37663102  0.36389210  0.50000000
   0.28443898  0.09214716  0.50000000
   0.12226451  0.14949494  0.50000000
   0.67086929  0.77216559  0.50000000
   0.82751702  0.71743309  0.50000000
   0.73311263  0.82585711  0.50000000
   0.81248788  0.79839423  0.50000000
   0.76547364  0.66358012  0.50000000
   0.68582726  0.69100025  0.50000000
   0.71556102  0.90785284  0.50000000
   0.87773551  0.85050507  0.50000000
   0.78220677  0.58184026  0.50000000
   0.62336896  0.63610789  0.50000000
   0.71743310  0.17248302  0.50000000
   0.77216556  0.32913067  0.50000000
   0.66358011  0.23452639  0.50000000
   0.69100022  0.31417273  0.50000000
   0.82585710  0.26688734  0.50000000
   0.79839424  0.18751214  0.50000000
   0.58184028  0.21779323  0.50000000
   0.63610794  0.37663098  0.50000000
   0.90785284  0.28443898  0.50000000
   0.85050505  0.12226452  0.50000000
   0.22783444  0.67086933  0.50000000
   0.28256690  0.82751697  0.50000000
   0.17414290  0.73311266  0.50000000
   0.20160576  0.81248786  0.50000000
   0.33641989  0.76547361  0.50000000
   0.30899978  0.68582727  0.50000000
   0.09214716  0.71556102  0.50000000
   0.14949495  0.87773548  0.50000000
   0.41815973  0.78220677  0.50000000
   0.36389206  0.62336902  0.50000000
   0.38986980  0.20707318  0.50000000
   0.11158287  0.30299012  0.50000000
   0.88841714  0.69700987  0.50000000
   0.61013019  0.79292682  0.50000000
   0.79292681  0.38986979  0.50000000
   0.69700988  0.11158288  0.50000000
   0.30299012  0.88841712  0.50000000
   0.20707319  0.61013021  0.50000000
   0.20392400  0.48545819  0.50000000
   0.42564087  0.41225022  0.50000000
   0.30068642  0.02537359  0.50000000
   0.06596345  0.11001104  0.50000000
   0.69931357  0.97462644  0.50000000
   0.93403657  0.88998898  0.50000000
   0.79607601  0.51454178  0.50000000
   0.57435912  0.58774976  0.50000000
   0.51454182  0.20392400  0.50000000
   0.58774985  0.42564076  0.50000000
   0.97462639  0.30068641  0.50000000
   0.88998895  0.06596346  0.50000000
   0.02537361  0.69931359  0.50000000
   0.11001105  0.93403654  0.50000000
   0.48545817  0.79607600  0.50000000
   0.41225015  0.57435923  0.50000000
Direct configuration=     5
   0.50000000  0.50000000  0.50000000
   0.17247548  0.28257089  0.50000000
   0.32913340  0.22783541  0.50000000
   0.23451983  0.33642671  0.50000000
   0.31417873  0.30900734  0.50000000
   0.26688985  0.17414177  0.50000000
   0.18750559  0.20160623  0.50000000
   0.21779786  0.41815436  0.50000000
   0.37662632  0.36389891  0.50000000
   0.28443057  0.09215676  0.50000000
   0.12227474  0.14949876  0.50000000
   0.67086658  0.77216461  0.50000000
   0.82752454  0.71742911  0.50000000
   0.73311014  0.82585824  0.50000000
   0.81249442  0.79839377  0.50000000
   0.76548019  0.66357329  0.50000000
   0.68582126  0.69099267  0.50000000
   0.71556943  0.90784322  0.50000000
   0.87772527  0.85050125  0.50000000
   0.78220214  0.58184564  0.50000000
   0.62337366  0.63610108  0.50000000
   0.71742910  0.17247548  0.50000000
   0.77216458  0.32913340  0.50000000
   0.66357330  0.23451985  0.50000000
   0.69099265  0.31417872  0.50000000
   0.82585822  0.26688984  0.50000000
   0.79839378  0.18750560  0.50000000
   0.58184564  0.21779786  0.50000000
   0.63610117  0.37662625  0.50000000
   0.90784324  0.28443057  0.50000000
   0.85050122  0.12227475  0.50000000
   0.22783542  0.67086660  0.50000000
   0.28257090  0.82752452  0.50000000
   0.17414178  0.73311017  0.50000000
   0.20160622  0.81249440  0.50000000
   0.33642670  0.76548015  0.50000000
   0.30900735  0.68582129  0.50000000
   0.09215675  0.71556943  0.50000000
   0.14949878  0.87772525  0.50000000
   0.41815437  0.78220215  0.50000000
   0.36389883  0.62337375  0.50000000
   0.38985838  0.20707979  0.50000000
   0.11158853  0.30298616  0.50000000
   0.88841150  0.69701382  0.50000000
   0.61014160  0.79292022  0.50000000
   0.79292021  0.38985836  0.50000000
   0.69701384  0.11158855  0.50000000
   0.30298615  0.88841145  0.50000000
   0.20707979  0.61014164  0.50000000
   0.20392983  0.48545338  0.50000000
   0.42563942  0.41225473  0.50000000
   0.30067592  0.02538236  0.50000000
   0.06597081  0.11001944  0.50000000
   0.69932407  0.97461770  0.50000000
   0.93402922  0.88998058  0.50000000
   0.79607018  0.51454658  0.50000000
   0.57436057  0.58774526  0.50000000
   0.51454664  0.20392984  0.50000000
   0.58774538  0.42563926  0.50000000
   0.97461763  0.30067592  0.50000000
   0.88998055  0.06597081  0.50000000
   0.02538239  0.69932409  0.50000000
   0.11001945  0.93402918  0.50000000
   0.48545334  0.79607016  0.50000000
   0.41225462  0.57436074  0.50000000
Direct configuration=     6
   0.50000000  0.50000000  0.50000000
   0.17247616  0.28257182  0.50000000
   0.32912776  0.22784303  0.50000000
   0.23451820  0.33642533  0.50000000
   0.31417649  0.30901174  0.50000000
   0.26688736  0.17415010  0.50000000
   0.18750847  0.20161299  0.50000000
   0.21780175  0.41815240  0.50000000
   0.37662202  0.36390870  0.50000000
   0.28442104  0.09216554  0.50000000
   0.12228453  0.14950184  0.50000000
   0.67087223  0.77215699  0.50000000
   0.82752385  0.71742818  0.50000000
   0.73311264  0.82584991  0.50000000
   0.81249154  0.79838701  0.50000000
   0.76548181  0.66357467  0.50000000
   0.68582350  0.69098826  0.50000000
   0.71557895  0.90783450  0.50000000
   0.87771549  0.85049818  0.50000000
   0.78219826  0.58184757  0.50000000
   0.62337797  0.63609130  0.50000000
   0.71742817  0.17247616  0.50000000
   0.77215697  0.32912775  0.50000000
   0.66357468  0.23451822  0.50000000
   0.69098828  0.31417645  0.50000000
   0.82584989  0.26688735  0.50000000
   0.79838700  0.18750849  0.50000000
   0.58184761  0.21780175  0.50000000
   0.63609143  0.37662190  0.50000000
   0.90783445  0.28442104  0.50000000
   0.85049815  0.12228454  0.50000000
   0.22784303  0.67087225  0.50000000
   0.28257183  0.82752383  0.50000000
   0.17415010  0.73311265  0.50000000
   0.20161299  0.81249151  0.50000000
   0.33642532  0.76548178  0.50000000
   0.30901172  0.68582355  0.50000000
   0.09216556  0.71557897  0.50000000
   0.14950185  0.87771546  0.50000000
   0.41815237  0.78219825  0.50000000
   0.36390856  0.62337810  0.50000000
   0.38985158  0.20708556  0.50000000
   0.11158767  0.30298402  0.50000000
   0.88841237  0.69701597  0.50000000
   0.61014838  0.79291445  0.50000000
   0.79291443  0.38985157  0.50000000
   0.69701599  0.11158769  0.50000000
   0.30298401  0.88841230  0.50000000
   0.20708557  0.61014844  0.50000000
   0.20393752  0.48544993  0.50000000
   0.42563846  0.41226222  0.50000000
   0.30066202  0.02539132  0.50000000
   0.06597721  0.11002783  0.50000000
   0.69933798  0.97460868  0.50000000
   0.93402281  0.88997218  0.50000000
   0.79606248  0.51455005  0.50000000
   0.57436153  0.58773776  0.50000000
   0.51455007  0.20393752  0.50000000
   0.58773789  0.42563827  0.50000000
   0.97460868  0.30066202  0.50000000
   0.88997216  0.06597722  0.50000000
   0.02539132  0.69933798  0.50000000
   0.11002784  0.93402278  0.50000000
   0.48544994  0.79606248  0.50000000
   0.41226210  0.57436173  0.50000000
Direct configuration=     7
   0.50000000  0.50000000  0.50000000
   0.17247820  0.28257462  0.50000000
   0.32911084  0.22786588  0.50000000
   0.23451333  0.33642119  0.50000000
   0.31416977  0.30902494  0.50000000
   0.26687989  0.17417508  0.50000000
   0.18751713  0.20163330  0.50000000
   0.21781342  0.41814652  0.50000000
   0.37660912  0.36393805  0.50000000
   0.28439245  0.09219189  0.50000000
   0.12231392  0.14951109  0.50000000
   0.67088917  0.77213412  0.50000000
   0.82752179  0.71742540  0.50000000
   0.73312014  0.82582491  0.50000000
   0.81248287  0.79836672  0.50000000
   0.76548665  0.66357879  0.50000000
   0.68583022  0.69097503  0.50000000
   0.71560748  0.90780836  0.50000000
   0.87768613  0.85048895  0.50000000
   0.78218660  0.58185338  0.50000000
   0.62339090  0.63606198  0.50000000
   0.71742536  0.17247821  0.50000000
   0.77213413  0.32911082  0.50000000
   0.66357883  0.23451332  0.50000000
   0.69097517  0.31416967  0.50000000
   0.82582491  0.26687990  0.50000000
   0.79836668  0.18751715  0.50000000
   0.58185354  0.21781344  0.50000000
   0.63606223  0.37660886  0.50000000
   0.90780806  0.28439244  0.50000000
   0.85048893  0.12231389  0.50000000
   0.22786587  0.67088918  0.50000000
   0.28257464  0.82752179  0.50000000
   0.17417508  0.73312010  0.50000000
   0.20163332  0.81248284  0.50000000
   0.33642118  0.76548668  0.50000000
   0.30902483  0.68583032  0.50000000
   0.09219202  0.71560758  0.50000000
   0.14951107  0.87768611  0.50000000
   0.41814637  0.78218654  0.50000000
   0.36393775  0.62339115  0.50000000
   0.38983121  0.20710290  0.50000000
   0.11158510  0.30297757  0.50000000
   0.88841496  0.69702241  0.50000000
   0.61016873  0.79289713  0.50000000
   0.79289709  0.38983118  0.50000000
   0.69702244  0.11158513  0.50000000
   0.30297756  0.88841487  0.50000000
   0.20710291  0.61016882  0.50000000
   0.20396059  0.48543960  0.50000000
   0.42563558  0.41228472  0.50000000
   0.30062031  0.02541819  0.50000000
   0.06599642  0.11005298  0.50000000
   0.69937973  0.97458163  0.50000000
   0.93400357  0.88994700  0.50000000
   0.79603940  0.51456047  0.50000000
   0.57436439  0.58771526  0.50000000
   0.51456035  0.20396058  0.50000000
   0.58771544  0.42563528  0.50000000
   0.97458183  0.30062032  0.50000000
   0.88994699  0.06599645  0.50000000
   0.02541810  0.69937967  0.50000000
   0.11005301  0.93400355  0.50000000
   0.48543973  0.79603944  0.50000000
   0.41228456  0.57436471  0.50000000
Direct configuration=     8
   0.50000000  0.50000000  0.50000000
   0.17248229  0.28258022  0.50000000
   0.32907699  0.22791158  0.50000000
   0.23450359  0.33641291  0.50000000
   0.31415633  0.30905132  0.50000000
   0.26686495  0.17422505  0.50000000
   0.18753445  0.20167391  0.50000000
   0.21783676  0.41813477  0.50000000
   0.37658332  0.36399675  0.50000000
   0.28433528  0.09224459  0.50000000
   0.12237270  0.14952958  0.50000000
   0.67092306  0.77208838  0.50000000
   0.82751767  0.71741983  0.50000000
   0.73313515  0.82577492  0.50000000
   0.81246555  0.79832615  0.50000000
   0.76549634  0.66358703  0.50000000
   0.68584364  0.69094857  0.50000000
   0.71566456  0.90775606  0.50000000
   0.87762742  0.85047050  0.50000000
   0.78216329  0.58186498  0.50000000
   0.62341677  0.63600335  0.50000000
   0.71741975  0.17248231  0.50000000
   0.77208845  0.32907696  0.50000000
   0.66358712  0.23450353  0.50000000
   0.69094895  0.31415611  0.50000000
   0.82577495  0.26686500  0.50000000
   0.79832604  0.18753448  0.50000000
   0.58186538  0.21783681  0.50000000
   0.63600383  0.37658279  0.50000000
   0.90775530  0.28433524  0.50000000
   0.85047048  0.12237261  0.50000000
   0.22791155  0.67092304  0.50000000
   0.28258026  0.82751769  0.50000000
   0.17422504  0.73313499  0.50000000
   0.20167396  0.81246551  0.50000000
   0.33641290  0.76549647  0.50000000
   0.30905105  0.68584388  0.50000000
   0.09224492  0.71566481  0.50000000
   0.14952950  0.87762740  0.50000000
   0.41813436  0.78216314  0.50000000
   0.36399613  0.62341725  0.50000000
   0.38979045  0.20713756  0.50000000
   0.11157996  0.30296468  0.50000000
   0.88842015  0.69703528  0.50000000
   0.61020943  0.79286249  0.50000000
   0.79286242  0.38979041  0.50000000
   0.69703532  0.11158000  0.50000000
   0.30296467  0.88841999  0.50000000
   0.20713758  0.61020960  0.50000000
   0.20400672  0.48541893  0.50000000
   0.42562982  0.41232970  0.50000000
   0.30053691  0.02547195  0.50000000
   0.06603482  0.11010329  0.50000000
   0.69946322  0.97452753  0.50000000
   0.93396508  0.88989664  0.50000000
   0.79599324  0.51458130  0.50000000
   0.57437013  0.58767025  0.50000000
   0.51458092  0.20400669  0.50000000
   0.58767054  0.42562930  0.50000000
   0.97452813  0.30053692  0.50000000
   0.88989664  0.06603490  0.50000000
   0.02547168  0.69946303  0.50000000
   0.11010336  0.93396509  0.50000000
   0.48541930  0.79599336  0.50000000
   0.41232947  0.57437067  0.50000000
Direct configuration=     9
   0.50000000  0.50000000  0.50000000
   0.17248103  0.28257849  0.50000000
   0.32908742  0.22789749  0.50000000
   0.23450659  0.33641546  0.50000000
   0.31416048  0.30904319  0.50000000
   0.26686956  0.17420964  0.50000000
   0.18752911  0.20166139  0.50000000
   0.21782957  0.41813839  0.50000000
   0.37659128  0.36397865  0.50000000
   0.28435291  0.09222834  0.50000000
   0.12235458  0.14952388  0.50000000
   0.67091261  0.77210248  0.50000000
   0.82751894  0.71742155  0.50000000
   0.73313053  0.82579033  0.50000000
   0.81247089  0.79833866  0.50000000
   0.76549335  0.66358449  0.50000000
   0.68583950  0.69095673  0.50000000
   0.71564696  0.90777219  0.50000000
   0.87764552  0.85047619  0.50000000
   0.78217048  0.58186140  0.50000000
   0.62340879  0.63602143  0.50000000
   0.71742148  0.17248105  0.50000000
   0.77210254  0.32908740  0.50000000
   0.66358457  0.23450655  0.50000000
   0.69095703  0.31416029  0.50000000
   0.82579035  0.26686959  0.50000000
   0.79833857  0.18752914  0.50000000
   0.58186173  0.21782960  0.50000000
   0.63602184  0.37659083  0.50000000
   0.90777157  0.28435288  0.50000000
   0.85047617  0.12235450  0.50000000
   0.22789746  0.67091260  0.50000000
   0.28257853  0.82751895  0.50000000
   0.17420963  0.73313040  0.50000000
   0.20166143  0.81247086  0.50000000
   0.33641545  0.76549345  0.50000000
   0.30904297  0.68583970  0.50000000
   0.09222861  0.71564717  0.50000000
   0.14952382  0.87764550  0.50000000
   0.41813806  0.78217036  0.50000000
   0.36397813  0.62340920  0.50000000
   0.38980302  0.20712687  0.50000000
   0.11158155  0.30296866  0.50000000
   0.88841855  0.69703131  0.50000000
   0.61019688  0.79287317  0.50000000
   0.79287311  0.38980299  0.50000000
   0.69703135  0.11158158  0.50000000
   0.30296864  0.88841841  0.50000000
   0.20712689  0.61019702  0.50000000
   0.20399249  0.48542530  0.50000000
   0.42563160  0.41231583  0.50000000
   0.30056263  0.02545537  0.50000000
   0.06602298  0.11008777  0.50000000
   0.69943747  0.97454421  0.50000000
   0.93397695  0.88991217  0.50000000
   0.79600747  0.51457487  0.50000000
   0.57436836  0.58768413  0.50000000
   0.51457458  0.20399247  0.50000000
   0.58768439  0.42563114  0.50000000
   0.97454469  0.30056264  0.50000000
   0.88991216  0.06602304  0.50000000
   0.02545516  0.69943733  0.50000000
   0.11008784  0.93397695  0.50000000
   0.48542560  0.79600757  0.50000000
   0.41231562  0.57436883  0.50000000
Direct configuration=    10
   0.50000000  0.50000000  0.50000000
   0.17247829  0.28258518  0.50000000
   0.32908633  0.22790697  0.50000000
   0.23450920  0.33641625  0.50000000
   0.31415529  0.30905399  0.50000000
   0.26686632  0.17422432  0.50000000
   0.18753506  0.20166777  0.50000000
   0.21783400  0.41812851  0.50000000
   0.37658759  0.36399292  0.50000000
   0.28434056  0.09224372  0.50000000
   0.12236103  0.14952626  0.50000000
   0.67091370  0.77209302  0.50000000
   0.82752169  0.71741483  0.50000000
   0.73313373  0.82577574  0.50000000
   0.81246495  0.79833230  0.50000000
   0.76549076  0.66358369  0.50000000
   0.68584471  0.69094593  0.50000000
   0.71565948  0.90775607  0.50000000
   0.87763894  0.85047372  0.50000000
   0.78216598  0.58187157  0.50000000
   0.62341238  0.63600706  0.50000000
   0.71741482  0.17247830  0.50000000
   0.77209310  0.32908629  0.50000000
   0.66358377  0.23450913  0.50000000
   0.69094624  0.31415509  0.50000000
   0.82577568  0.26686636  0.50000000
   0.79833220  0.18753505  0.50000000
   0.58187144  0.21783401  0.50000000
   0.63600749  0.37658723  0.50000000
   0.90775630  0.28434057  0.50000000
   0.85047370  0.12236108  0.50000000
   0.22790691  0.67091371  0.50000000
   0.28258518  0.82752170  0.50000000
   0.17422433  0.73313364  0.50000000
   0.20166780  0.81246495  0.50000000
   0.33641621  0.76549087  0.50000000
   0.30905374  0.68584490  0.50000000
   0.09224362  0.71565942  0.50000000
   0.14952630  0.87763891  0.50000000
   0.41812866  0.78216601  0.50000000
   0.36399252  0.62341276  0.50000000
   0.38979713  0.20713457  0.50000000
   0.11157780  0.30296723  0.50000000
   0.88842228  0.69703275  0.50000000
   0.61020279  0.79286546  0.50000000
   0.79286541  0.38979710  0.50000000
   0.69703278  0.11157783  0.50000000
   0.30296722  0.88842217  0.50000000
   0.20713459  0.61020291  0.50000000
   0.20400193  0.48543502  0.50000000
   0.42562503  0.41232341  0.50000000
   0.30054259  0.02546114  0.50000000
   0.06603103  0.11009770  0.50000000
   0.69945735  0.97453908  0.50000000
   0.93396901  0.88990233  0.50000000
   0.79599809  0.51456490  0.50000000
   0.57437501  0.58767662  0.50000000
   0.51456502  0.20400194  0.50000000
   0.58767694  0.42562441  0.50000000
   0.97453882  0.30054257  0.50000000
   0.88990231  0.06603100  0.50000000
   0.02546125  0.69945744  0.50000000
   0.11009769  0.93396900  0.50000000
   0.48543490  0.79599804  0.50000000
   0.41232304  0.57437559  0.50000000
Direct configuration=    11
   0.50000000  0.50000000  0.50000000
   0.17247771  0.28258659  0.50000000
   0.32908609  0.22790898  0.50000000
   0.23450976  0.33641642  0.50000000
   0.31415420  0.30905628  0.50000000
   0.26686564  0.17422743  0.50000000
   0.18753632  0.20166911  0.50000000
   0.21783494  0.41812642  0.50000000
   0.37658681  0.36399594  0.50000000
   0.28433796  0.09224697  0.50000000
   0.12236240  0.14952676  0.50000000
   0.67091393  0.77209102  0.50000000
   0.82752227  0.71741342  0.50000000
   0.73313440  0.82577265  0.50000000
   0.81246369  0.79833096  0.50000000
   0.76549021  0.66358352  0.50000000
   0.68584581  0.69094365  0.50000000
   0.71566213  0.90775266  0.50000000
   0.87763755  0.85047320  0.50000000
   0.78216503  0.58187372  0.50000000
   0.62341314  0.63600402  0.50000000
   0.71741341  0.17247772  0.50000000
   0.77209110  0.32908605  0.50000000
   0.66358360  0.23450967  0.50000000
   0.69094396  0.31415399  0.50000000
   0.82577258  0.26686568  0.50000000
   0.79833086  0.18753630  0.50000000
   0.58187350  0.21783494  0.50000000
   0.63600446  0.37658647  0.50000000
   0.90775308  0.28433796  0.50000000
   0.85047318  0.12236248  0.50000000
   0.22790891  0.67091394  0.50000000
   0.28258658  0.82752228  0.50000000
   0.17422744  0.73313432  0.50000000
   0.20166915  0.81246371  0.50000000
   0.33641637  0.76549032  0.50000000
   0.30905602  0.68584600  0.50000000
   0.09224679  0.71566201  0.50000000
   0.14952683  0.87763751  0.50000000
   0.41812667  0.78216509  0.50000000
   0.36399556  0.62341352  0.50000000
   0.38979589  0.20713620  0.50000000
   0.11157700  0.30296693  0.50000000
   0.88842306  0.69703305  0.50000000
   0.61020404  0.79286383  0.50000000
   0.79286378  0.38979586  0.50000000
   0.69703308  0.11157703  0.50000000
   0.30296692  0.88842296  0.50000000
   0.20713622  0.61020415  0.50000000
   0.20400393  0.48543708  0.50000000
   0.42562364  0.41232502  0.50000000
   0.30053835  0.02546236  0.50000000
   0.06603273  0.11009979  0.50000000
   0.69946156  0.97453800  0.50000000
   0.93396733  0.88990025  0.50000000
   0.79599610  0.51456279  0.50000000
   0.57437641  0.58767503  0.50000000
   0.51456300  0.20400395  0.50000000
   0.58767536  0.42562299  0.50000000
   0.97453758  0.30053833  0.50000000
   0.88990022  0.06603268  0.50000000
   0.02546254  0.69946170  0.50000000
   0.11009977  0.93396732  0.50000000
   0.48543686  0.79599603  0.50000000
   0.41232460  0.57437702  0.50000000
Direct configuration=    12
   0.50000000  0.50000000  0.50000000
   0.17247308  0.28259490  0.50000000
   0.32909048  0.22791757  0.50000000
   0.23451377  0.33641927  0.50000000
   0.31415160  0.30906780  0.50000000
   0.26686517  0.17424123  0.50000000
   0.18753932  0.20167353  0.50000000
   0.21783388  0.41813178  0.50000000
   0.37658045  0.36400366  0.50000000
   0.28433051  0.09225479  0.50000000
   0.12236576  0.14953029  0.50000000
   0.67090953  0.77208244  0.50000000
   0.82752692  0.71740509  0.50000000
   0.73313484  0.82575882  0.50000000
   0.81246071  0.79832651  0.50000000
   0.76548622  0.66358070  0.50000000
   0.68584841  0.69093217  0.50000000
   0.71566955  0.90774497  0.50000000
   0.87763420  0.85046968  0.50000000
   0.78216611  0.58186832  0.50000000
   0.62341950  0.63599630  0.50000000
   0.71740512  0.17247306  0.50000000
   0.77208256  0.32909043  0.50000000
   0.66358073  0.23451366  0.50000000
   0.69093244  0.31415138  0.50000000
   0.82575881  0.26686519  0.50000000
   0.79832646  0.18753929  0.50000000
   0.58186817  0.21783388  0.50000000
   0.63599675  0.37658010  0.50000000
   0.90774524  0.28433051  0.50000000
   0.85046966  0.12236582  0.50000000
   0.22791744  0.67090957  0.50000000
   0.28259488  0.82752694  0.50000000
   0.17424120  0.73313481  0.50000000
   0.20167355  0.81246071  0.50000000
   0.33641925  0.76548633  0.50000000
   0.30906756  0.68584862  0.50000000
   0.09225467  0.71566947  0.50000000
   0.14953035  0.87763418  0.50000000
   0.41813194  0.78216613  0.50000000
   0.36400326  0.62341988  0.50000000
   0.38979506  0.20714224  0.50000000
   0.11157131  0.30296756  0.50000000
   0.88842872  0.69703243  0.50000000
   0.61020491  0.79285777  0.50000000
   0.79285774  0.38979503  0.50000000
   0.69703244  0.11157133  0.50000000
   0.30296755  0.88842866  0.50000000
   0.20714226  0.61020497  0.50000000
   0.20401419  0.48544160  0.50000000
   0.42561775  0.41233331  0.50000000
   0.30051898  0.02546808  0.50000000
   0.06603462  0.11010366  0.50000000
   0.69948095  0.97453217  0.50000000
   0.93396543  0.88989637  0.50000000
   0.79598584  0.51455830  0.50000000
   0.57438228  0.58766672  0.50000000
   0.51455848  0.20401421  0.50000000
   0.58766709  0.42561707  0.50000000